//mumax 3.10 [linux_amd64 go1.14(gc) CUDA-11.0]
//GPU info: Tesla P100-PCIE-16GB(16280MB), CUDA Driver 11.6, cc=6.0, using cc=60 PTX
//(c) Arne Vansteenkiste, Dynamat LAB, Ghent University, Belgium
//This is free software without any warranty. See license.txt
//********************************************************************//
//  If you use mumax in any work or publication,                      //
//  we kindly ask you to cite the references in references.bib        //
//********************************************************************//
//output directory: run.out/
//starting GUI at http://127.0.0.1:35368
SetCellsize(14.65e-9, 14.65e-9, 10e-9)
SetGridsize(1024, 1024, 2)
Msat = 860e3
Aex = 13e-12
alpha = 0.02
Ku1 = 5e2
setgeom(imageShape("hestesko_offset_flip.png"))
// Initializing geometry 0 %
// Initializing geometry 100 %
saveas(geom, "geometry")
m = randommag()
relax()
//Did not use cached kernel: open /tmp/mumax3kernel_[1024 1024 2]_[0 0 0]_[1.465e-08 1.465e-08 1e-08]_6_0 0.ovf: no such file or directory
// Calculating demag kernel 86 %
// Calculating demag kernel 100 %
//Cached kernel: /tmp/mumax3kernel_[1024 1024 2]_[0 0 0]_[1.465e-08 1.465e-08 1e-08]_6_
saveas(m, "magnetization")
//********************************************************************//
//Please cite the following references, relevant for your simulation. //
//See bibtex file in output folder for justification.                 //
//********************************************************************//
//   * Vansteenkiste et al., AIP Adv. 4, 107133 (2014).
run.out/geometry.ovf
run.out/magnetization.ovf
[ ok ] run.out/geometry.ovf	-> run.out/geometry.png
[ ok ] run.out/magnetization.ovf	-> run.out/magnetization.png
2 files converted,  0 skipped,  0 failed
