//mumax 3.10 [linux_amd64 go1.14(gc) CUDA-11.0]
//GPU info: NVIDIA A100 80GB PCIe(81069MB), CUDA Driver 11.6, cc=8.0, using cc=80 PTX
//(c) Arne Vansteenkiste, Dynamat LAB, Ghent University, Belgium
//This is free software without any warranty. See license.txt
//********************************************************************//
//  If you use mumax in any work or publication,                      //
//  we kindly ask you to cite the references in references.bib        //
//********************************************************************//
//output directory: run.out/
//starting GUI at http://127.0.0.1:35367
SetCellsize(7.324e-9, 7.324e-9, 10e-9)
SetGridsize(2048, 2048, 2)
Msat = 860e3
Aex = 13e-12
alpha = 0.02
Ku1 = 5e2
setgeom(imageShape("hestesko_regulaer.png"))
// Initializing geometry 0 %
// Initializing geometry 100 %
saveas(geom, "geometry")
m = randommag()
relax()
//Did not use cached kernel: open /tmp/mumax3kernel_[2048 2048 2]_[0 0 0]_[7.324e-09 7.324e-09 1e-08]_6_0 0.ovf: no such file or directory
// Calculating demag kernel 50 %
// Calculating demag kernel 60 %
// Calculating demag kernel 86 %
// Calculating demag kernel 97 %
// Calculating demag kernel 100 %
//Cached kernel: /tmp/mumax3kernel_[2048 2048 2]_[0 0 0]_[7.324e-09 7.324e-09 1e-08]_6_
