//mumax 3.10 [linux_amd64 go1.14(gc) CUDA-11.0]
//GPU info: Tesla P100-PCIE-16GB(16280MB), CUDA Driver 11.6, cc=6.0, using cc=60 PTX
//(c) Arne Vansteenkiste, Dynamat LAB, Ghent University, Belgium
//This is free software without any warranty. See license.txt
//********************************************************************//
//  If you use mumax in any work or publication,                      //
//  we kindly ask you to cite the references in references.bib        //
//********************************************************************//
//output directory: run.out/
//starting GUI at http://127.0.0.1:35367
SetCellsize(7.324e-9, 7.324e-9, 10e-9)
SetGridsize(2048, 2048, 2)
Msat = 860e3
Aex = 13e-12
alpha = 0.02
Ku1 = 5e2
setgeom(imageShape("hestesko_regulaer.png"))
// Initializing geometry 0 %
// Initializing geometry 100 %
saveas(geom, "geometry")
m = randommag()
relax()
//Using cached kernel: /tmp/mumax3kernel_[2048 2048 2]_[0 0 0]_[7.324e-09 7.324e-09 1e-08]_6_
slurmstepd: error: *** JOB 12792352 ON idun-06-09 CANCELLED AT 2022-10-27T11:58:25 ***
